52
{"name": "Conformer 298", "statusflags": ["topofail"], "energy": 293.7641021281872}
 N    0.27687104   -1.53745079   -1.94023040
 C    1.66046395   -1.38981432   -2.00359969
 C    2.04538085   -1.11290498   -0.54336710
 O    1.23220839   -1.30014945    0.35549353
 N    3.28806426   -0.63948452   -0.17611507
 C    3.62020460   -0.25778639    1.19008475
 C    2.38573911    0.14171009    1.96961957
 O    2.29107393   -0.18342803    3.13742619
 C    4.43816317    1.00361200    0.90016304
 C    5.36420730    0.47533701   -0.18647616
 C    4.43934176   -0.42140475   -0.97729572
 N    1.34117004    0.85176479    1.40930054
 C    0.10019402    1.19965686    2.07207597
 C   -0.81589686    1.67402861    1.02974865
 O   -0.30635364    1.79569602   -0.12950223
 N   -2.15396061    2.01268739    1.05120291
 C   -2.71391121    2.29176321   -0.32488895
 C   -2.47590556    0.91094851   -1.00801596
 O   -2.33777874    0.88128433   -2.21801190
 C   -4.11733976    2.64308832   -0.20797077
 N   -2.42868243   -0.27448458   -0.33563158
 C   -1.93849475   -1.54237097   -0.73556214
 C   -1.05517692   -1.67959574   -1.87926649
 O   -1.53760755   -1.97261808   -3.03317738
 C   -3.14507041   -2.41911938   -0.68207266
 C   -3.62003520   -2.03368943    0.74464966
 C   -3.09106431   -0.61622044    0.93859060
 H    0.28636993   -1.77888444   -3.25576332
 H    2.27215862   -2.28553537   -2.26539768
 H    2.06845200   -0.54266567   -2.60312879
 H    4.16967415   -1.01050428    1.74846285
 H    4.94012540    1.38859140    1.77967101
 H    3.74495533    1.71110320    0.39183807
 H    6.13148547   -0.15606942    0.30258245
 H    5.76343752    1.29911907   -0.78430428
 H    4.98582021   -1.30055129   -1.30884271
 H    4.10744654    0.12967776   -1.90487519
 H    1.48680294    1.19661488    0.45710085
 H    0.28436016    1.98936512    2.84739547
 H   -0.32834702    0.33321488    2.62432462
 H   -2.71985570    2.07873705    1.82164650
 H   -2.07386769    2.98725452   -0.86667101
 H   -4.31896925    3.32087004    0.65095391
 H   -4.40148046    3.27418561   -1.10804732
 H   -4.83371492    1.78979509   -0.21493487
 H   -1.34563733   -1.90121058    0.20643027
 H   -2.89748689   -3.48905470   -0.72802018
 H   -3.94526250   -2.13983189   -1.37671666
 H   -3.06400147   -2.71422138    1.43837087
 H   -4.70269835   -2.08469210    0.83549524
 H   -2.38406999   -0.61163682    1.76154324
 H   -3.97150114    0.01527405    1.13371544
