34
{"name": "Conformer 39", "statusflags": ["topofail"], "energy": 229.9671093504216}
 O   -1.76214791    1.02419474    0.00808155
 C   -2.70394085    0.61785429   -0.92523766
 C   -2.53188316   -0.77980058   -1.33402413
 N   -1.72435373   -1.81696769   -1.07375836
 C   -0.92280916   -2.84651160   -0.81544578
 C    0.24648843   -2.70195439    0.16004562
 O    1.12185870   -1.77484425   -0.20186923
 C    2.29840246   -1.77664902    0.58803423
 C    3.05631920   -0.48862958    0.03000828
 N    2.12667181    0.54194365    0.35527170
 C    2.12019148    1.86314188   -0.08186014
 C    1.05959705    2.83554040    0.37077192
 O    0.28788644    2.10733357    1.28545466
 C   -0.88073886    2.68787697    1.66460381
 C   -1.89973186    2.28922169    0.65351835
 O   -3.43501619   -1.15413181   -2.22015990
 O    2.98042814    2.21799041   -0.84853352
 O   -2.88003869    2.96931942    0.33131698
 H   -3.75564946    0.82345622   -0.59664931
 H   -2.54769293    1.25383066   -1.85814276
 H   -1.45395811   -3.79682835   -0.39218435
 H   -0.38185917   -3.32721619   -1.72036942
 H    0.69098207   -3.71355822    0.17214326
 H   -0.13809179   -2.54523769    1.20608272
 H    2.02841296   -1.51893523    1.60342418
 H    2.88447172   -2.65793892    0.40736949
 H    3.26304698   -0.61343961   -1.02228514
 H    3.96346825   -0.46715365    0.65684581
 H    1.49543220    3.73568493    0.78398908
 H    0.41639252    3.05485535   -0.49955974
 H   -1.21759946    2.42835886    2.67273324
 H   -0.73248525    3.80089222    1.60663843
 H   -2.41957286   -2.59184326   -1.96244366
 H    1.34751902    0.32014482    0.99618980
34
{"name": "Conformer 180", "statusflags": ["topofail"], "energy": 326.56976133416293}
 O    0.31838374    2.57896994   -0.94908268
 C   -0.96081320    3.04189207   -0.96573060
 C   -1.77331981    1.84036430   -0.65923981
 N   -2.99651430    1.33473533   -0.49347352
 C   -3.00170751   -0.15776507   -0.14131097
 C   -2.50892172   -0.31497993    1.23740211
 O   -2.09217926   -1.70958627    1.47643513
 C   -0.86840626   -1.73690568    0.97810205
 C    0.12407855   -2.88684883    1.04821617
 N    1.27441580   -2.44931119    0.55741494
 C    2.48188703   -1.99014248    0.04226607
 C    2.95074388   -0.70350500   -0.46674896
 O    2.01568486    0.30850884   -0.46781293
 C    2.58362637    1.50911797   -0.88290197
 C    1.59731761    2.59839431   -1.03953662
 O   -0.89161598    0.85160347   -0.48559646
 O    3.32412912   -2.96742971    0.05225859
 O    2.04798821    3.80055561   -1.32673511
 H   -1.25269090    3.51657118   -1.93577559
 H   -1.13434248    3.82835244   -0.18249244
 H   -4.05777385   -0.48356123   -0.20329423
 H   -2.44627928   -0.60941455   -0.95065964
 H   -1.65214349    0.28918583    1.54639196
 H   -3.33917661   -0.25405908    1.99552480
 H   -0.28790406   -0.86658483    1.41052425
 H   -0.87851252   -1.51742205   -0.16046351
 H    0.17713949   -3.13312067    2.16533065
 H   -0.37261472   -3.80743899    0.63647529
 H    3.36970643   -0.86056823   -1.51058881
 H    3.79029229   -0.34111367    0.19358714
 H    3.12488597    1.40110148   -1.84835121
 H    3.36960156    1.78224220   -0.12373957
 H   -3.85570590    1.77772726   -0.56122879
 H    1.82074095   -3.66956477    0.73746223
34
{"name": "Conformer 1356", "statusflags": ["topofail"], "energy": 323.8982839041435}
 O    1.08127240   -1.62559414    0.35191693
 C    0.28571267   -1.92210952    1.46285327
 C   -1.14922843   -1.53343616    1.31953709
 N   -1.81220961   -0.95839077    0.27062462
 C   -2.44966680   -0.40548918   -0.73789288
 C   -3.03295318    1.00489049   -0.37279658
 O   -2.22685304    1.86394876   -0.04081346
 C   -1.43055170    2.74091654    0.29392738
 C    0.01035902    2.13910421    0.52831166
 N    0.39253128    1.50313340   -0.69409797
 C    1.60956065    0.78928065   -0.78883751
 C    2.09718120    0.05828691   -1.98995641
 O    3.27205366   -0.52481443   -1.63089273
 C    3.29405001   -1.66208189   -0.91409939
 C    2.40784033   -1.95150616    0.17720116
 O   -1.86762057   -1.77682500    2.32109981
 O    2.26802408    0.80969369    0.26022461
 O    2.89732958   -2.63049106    1.16275075
 H    0.69984608   -1.44500389    2.39901323
 H    0.34787272   -3.02778996    1.70395786
 H   -1.80144013   -0.16077321   -1.64723642
 H   -3.30062079   -0.96187538   -1.24115533
 H   -3.72541563    1.21961555   -1.25597819
 H   -3.75359344    0.70854188    0.49601696
 H   -1.21169856    3.61361239   -0.41191426
 H   -1.60141260    3.25354298    1.31816390
 H   -0.12434569    1.46113273    1.37629544
 H    0.67328593    2.95170303    0.85161029
 H    2.34603481    0.85187306   -2.74340234
 H    1.32181222   -0.62209827   -2.40606113
 H    4.38289628   -1.75646712   -0.54672690
 H    3.23808365   -2.52408947   -1.64697384
 H   -2.97421417   -1.01820641    0.99143395
 H   -0.16392226    1.53776578   -1.52301532
34
{"name": "Conformer 1499", "statusflags": ["topofail"], "energy": 275.17381697263113}
 O    0.31376568    2.15673404    1.36596696
 C    1.02371947    1.31061208    2.01081068
 C    1.85543139    0.38983169    1.11766681
 N    1.84344236    0.51960845   -0.26592080
 C    2.50596436   -0.42867216   -1.14065937
 C    1.54421795   -1.64591648   -1.09623329
 O    1.37929626   -2.12646896    0.13738323
 C    0.27834154   -2.93573390    0.33579649
 C   -0.97615807   -2.15648368    0.57697358
 N   -1.42408676   -1.19412779   -0.29859408
 C   -1.84498188   -0.28990419   -1.12137226
 C   -2.19605078    1.17733710   -0.97666075
 O   -2.09602044    1.58890233    0.30444117
 C   -1.85670120    2.96647038    0.47674327
 C   -0.32877689    3.03792752    0.70697878
 O    2.54339731   -0.48971443    1.60892782
 O   -1.99093712   -0.71875163   -2.34590441
 O    0.26099924    4.01568149    0.21312831
 H    0.37317982    0.58653184    2.60556221
 H    1.73661107    1.76896193    2.76764412
 H    2.53719337   -0.09106680   -2.18583058
 H    3.47800620   -0.76423894   -0.74232055
 H    0.61652870   -1.38081275   -1.60262206
 H    2.01828827   -2.46506357   -1.72964847
 H    0.44968026   -3.55826705    1.22677484
 H    0.12355135   -3.65836569   -0.50386784
 H   -0.83511249   -1.70531613    1.62941602
 H   -1.78886382   -2.92071474    0.81126855
 H   -3.27504890    1.27152991   -1.28945464
 H   -1.58468334    1.75122854   -1.70383248
 H   -2.38327599    3.28055056    1.38290022
 H   -2.15277422    3.57879498   -0.36886573
 H    1.35952300    1.30777077   -0.65524833
 H   -1.50766576   -2.17885472   -1.25134742
34
{"name": "Conformer 1580", "statusflags": ["topofail"], "energy": 226.8121795144505}
 O    1.64993138    1.55608092   -0.27935389
 C    0.92430977    2.30070787    0.71661546
 C   -0.47777114    1.73010942    0.67413860
 N   -1.54233451    2.04695724    1.49629316
 C   -2.83493797    1.41841475    1.44973417
 C   -2.73851001   -0.11945095    1.63607370
 O   -2.13913098   -0.73919909    0.63369755
 C   -1.77394152   -2.05089989    0.63143821
 C   -1.34552105   -2.48100329   -0.77785275
 N   -0.31636045   -1.75624308   -1.37027940
 C    1.05422343   -1.65218628   -0.96712519
 C    2.01206673   -0.82414549   -1.63276835
 O    2.86145751   -0.08986704   -2.22303526
 C    3.66692334    0.78850288   -1.55419093
 C    2.97545305    1.65635380   -0.56188709
 O   -0.72481622    0.86843194   -0.16015296
 O    1.28674083   -2.36149282    0.01935227
 O    3.63200134    2.51992065    0.06865809
 H    0.89684580    3.35024872    0.38000473
 H    1.34180927    2.17445029    1.71768745
 H   -3.51821056    1.79845971    2.21867878
 H   -3.33681992    1.54221697    0.45930337
 H   -3.76334509   -0.49169064    1.79378199
 H   -2.11245435   -0.21836130    2.57192319
 H   -2.69096933   -2.66362563    0.84377828
 H   -0.97412211   -2.22142343    1.36620568
 H   -1.19641508   -3.59287376   -0.76569980
 H   -2.29398252   -2.36261355   -1.38614676
 H    1.72891115   -1.41409951   -2.82404858
 H    2.96203068   -1.83688501   -1.54513935
 H    4.23655143    1.34988810   -2.29096223
 H    4.41230884    0.18597308   -0.95925940
 H   -1.36060613    2.78880600    2.17243567
 H   -0.50131560   -1.19946158   -2.21882699
34
{"name": "Conformer 1587", "statusflags": ["topofail"], "energy": 316.2029238365516}
 O   -0.48791914    2.36823565    0.93479940
 C   -1.78502070    2.79577632    0.80852710
 C   -2.67815611    1.84498430    0.15397472
 N   -2.68593582    0.62169464   -0.39771064
 C   -2.69373682   -0.60017074   -0.94876187
 C   -1.50676903   -1.53407421   -1.00931730
 O   -0.90294534   -1.98565228   -0.01911164
 C   -0.24832986   -2.30968215    0.97945905
 C    1.30248788   -2.48522812    0.81810376
 N    1.84754675   -1.30052452    0.25362331
 C    3.14527451   -0.89038009   -0.00847754
 C    3.57269197    0.41576913   -0.61139404
 O    2.41853044    1.18401736   -0.85444109
 C    1.81305823    1.61151185    0.28623469
 C    0.42839742    2.07000107   -0.03652976
 O   -3.92741527    2.31866867    0.04779396
 O    4.00352588   -1.68357968    0.28387960
 O    0.02217490    2.20189735   -1.24158923
 H   -2.24062804    3.07940968    1.80607747
 H   -1.75730658    3.73601679    0.17346812
 H   -3.56050469   -1.29688978   -0.58346336
 H   -3.02986087   -0.56535410   -2.08543910
 H   -0.87026440   -1.05088168   -1.84461704
 H   -1.92778596   -2.42333001   -1.64735658
 H   -0.33401266   -1.55401179    1.84027746
 H   -0.60510887   -3.25181683    1.50725096
 H    1.64087161   -2.61427212    1.85137376
 H    1.49331812   -3.35779220    0.17472119
 H    3.99060901    0.16507191   -1.61082330
 H    4.29895968    0.89335136    0.03979773
 H    2.31543786    2.58889711    0.64891602
 H    1.79443460    0.90369680    1.09298398
 H   -3.99847378    0.76171929   -0.70926471
 H    1.15285507   -0.65707902   -0.09296510
34
{"name": "Conformer 2173", "statusflags": ["topofail"], "energy": 277.9299536866672}
 O    2.67197566   -1.92283720   -0.09239830
 C    1.41393593   -2.35888628    0.19827942
 C    0.12112028   -2.80706202    0.49699748
 N   -0.91154838   -1.82223402    0.56747127
 C   -2.28375654   -1.82359708    0.81859046
 C   -2.78531106   -0.33516775    0.69331747
 O   -2.57499071    0.14967623   -0.56125237
 C   -2.77285481    1.49483606   -0.79184698
 C   -1.61547500    2.21546162   -0.03771371
 N   -0.43342204    1.71711711   -0.66590470
 C    0.86630728    1.96351822   -0.15998523
 C    2.08435264    1.39387567   -0.77556576
 O    3.25064156    1.65570913   -0.02891839
 C    3.95647610    0.31631850   -0.16875817
 C    2.86208740   -0.54184000    0.20079942
 O   -0.29319005   -3.92493886    0.69858930
 O    0.90906636    2.65573751    0.84732653
 O    1.83924137   -0.10850964    0.85764531
 H    1.08266561   -2.03356897   -1.08243083
 H    1.76569489   -3.51217645   -0.42715187
 H   -2.49704341   -2.11333977    1.85536345
 H   -2.93351753   -2.37038335    0.11284453
 H   -3.87021202   -0.42150558    0.88965676
 H   -2.32694440    0.20400726    1.53237729
 H   -2.60205634    1.68439988   -1.87659095
 H   -3.73153867    1.88762534   -0.46078397
 H   -1.78844329    3.29712129   -0.23699684
 H   -1.72948556    2.02688858    1.02345055
 H    1.96350054    0.40398704   -1.14542178
 H    2.27310078    2.00555792   -1.76086584
 H    4.29042110    0.29337031   -1.21193597
 H    4.76795902    0.44897010    0.54796018
 H   -0.51003593   -0.88183829    0.35164812
 H   -0.45872078    1.16370748   -1.50852368
34
{"name": "Conformer 2187", "statusflags": ["topofail"], "energy": 237.01524038399182}
 O    3.05653702   -0.65448812    0.71488275
 C    3.33119484   -1.64980701   -0.20249989
 C    2.11380114   -2.17438195   -0.84300951
 N    0.82988304   -1.77311533   -0.60291967
 C   -0.37944080   -2.29783321   -1.26455534
 C   -1.46493380   -1.41306657   -0.64483663
 O   -2.73970819   -1.48574017   -0.95103783
 C   -3.43108140   -0.58142948   -0.10131551
 C   -2.94192393    0.83326171   -0.11433664
 N   -1.65280707    1.09719312    0.35176245
 C   -0.99394910    2.39146390    0.26483291
 C    0.35850227    2.55610196    0.69405737
 O    1.56369223    2.70282039    1.07654413
 C    2.25983590    1.58453637    1.51984093
 C    2.51385027    0.56704855    0.45597430
 O    2.23994075   -3.06929121   -1.68707623
 O   -1.73965155    3.23958339   -0.20655724
 O    2.20771535    0.87178993   -0.72387200
 H    3.90731475   -2.49178459    0.29788923
 H    4.00895047   -1.25071611   -1.02274971
 H   -0.54558113   -3.36269507   -1.03065872
 H   -0.34482678   -2.19840370   -2.36077713
 H   -1.09400205   -0.39683915   -1.00605162
 H   -1.29466107   -1.53330767    0.43790197
 H   -4.51862720   -0.61580551   -0.36814560
 H   -3.29052813   -0.98443124    0.91107235
 H   -3.08659200    1.22328100   -1.16114058
 H   -3.65960554    1.46205046    0.49012927
 H   -0.08843764    3.28361420    1.73864349
 H    0.42490298    3.80133764    0.08688843
 H    3.20482775    1.84366229    1.99111671
 H    1.59962200    1.08528284    2.26496164
 H    0.71597872   -1.06629359    0.11765912
 H   -1.07019210    0.45640192    0.87738282
34
{"name": "Conformer 2533", "statusflags": ["topofail"], "energy": 294.60575187644406}
 O   -1.85240390    2.53194148    0.47233816
 C   -1.17850084    3.31323015   -0.62376118
 C    0.16382871    2.67204575   -0.55127745
 N    1.31843284    2.80924538   -1.28843242
 C    2.48569258    2.02713357   -0.99321373
 C    2.39882113    0.56163756   -1.01694476
 O    1.56055596   -0.07816236   -0.10748824
 C    1.73157248   -1.40600662   -0.29339268
 C    1.12068819   -2.41134079    0.58114357
 N   -0.19790756   -2.59614935    0.75249328
 C   -1.50804214   -2.77984375    0.92279797
 C   -2.74526254   -2.14620900    0.48859986
 O   -2.53444756   -1.00952690   -0.26968780
 C   -2.34516763    0.01149428    0.73171622
 C   -1.88575659    1.17291127    0.01597273
 O    0.29875313    1.79443342    0.37830868
 O   -1.72108850   -3.81572048    1.67151376
 O   -1.43936462    1.01058645   -1.17442916
 H   -1.15123341    4.35603536   -0.27573590
 H   -1.75635257    3.09977427   -1.50332637
 H    3.29700509    2.34191937   -1.72470636
 H    2.91490632    2.31770585    0.01049587
 H    3.43482936    0.17866298   -0.73606649
 H    2.22065437    0.14023904   -2.04223090
 H    1.47903649   -1.64670320   -1.36930918
 H    2.85325579   -1.59383076   -0.19966511
 H    1.70531449   -3.38983252    0.29428118
 H    1.66738368   -2.21486166    1.61684890
 H   -3.41468132   -1.90984879    1.36012212
 H   -3.34100287   -2.86987819   -0.14048947
 H   -1.60726870   -0.41049517    1.42423972
 H   -3.35267869    0.10804154    1.19479457
 H    1.32612006    3.47395672   -2.04860438
 H    0.05430878   -3.64258493    1.59269732
34
{"name": "Conformer 3909", "statusflags": ["topofail"], "energy": 284.87519265782385}
 O    2.01350049    2.62387130    0.26809650
 C    1.43311321    3.61736346   -0.54604911
 C    0.08779753    3.17083063   -1.04207188
 N   -0.58993066    2.01394264   -0.83070607
 C   -1.26489425    0.86183145   -0.62023322
 C   -2.65700144    0.70967804   -0.16061613
 O   -3.03316576   -0.55861251   -0.06196488
 C   -2.69235955   -1.62269675    0.54003662
 C   -1.57116081   -2.58884686    0.37360413
 N   -0.25523367   -2.13469567    0.43956517
 C    0.93041633   -2.94721985    0.48620176
 C    2.28516050   -2.21765441    0.50700612
 O    2.02443585   -0.91883014    0.38474975
 C    2.77806497    0.16166016    0.57727858
 C    2.17482592    1.34856117   -0.14994375
 O   -0.56826502    3.96670211   -1.79681750
 O    0.78911770   -4.12442785    0.51811376
 O    1.76031941    1.06118297   -1.33226280
 H    2.07659478    3.94979757   -1.36164287
 H    1.21869802    4.51723957    0.08898193
 H   -1.05966019    0.00544138   -1.31434219
 H   -0.72664341    0.55339193    0.43719995
 H   -3.35234001    1.25299972   -0.86957601
 H   -2.79995564    1.27370150    0.83582010
 H   -2.78963793   -1.48358485    1.72863582
 H   -3.63990938   -2.34293448    0.47011125
 H   -1.65331150   -3.41492841    1.17615712
 H   -1.75612908   -3.22645026   -0.56537841
 H    2.78369272   -2.50493030    1.46011054
 H    2.89715517   -2.68113491   -0.29595074
 H    2.91515170    0.46520360    1.65018557
 H    3.80418190   -0.03345659    0.18394195
 H   -1.57056982    2.41141215   -1.66314432
 H    0.00794194   -1.16440752    0.48490328
34
{"name": "Conformer 4923", "statusflags": ["topofail"], "energy": 313.2951439573188}
 O    1.21787290   -1.84800918    0.18192941
 C    0.44045183   -2.98612167    0.37126903
 C   -0.97478920   -2.85397799    0.11857232
 N   -1.88435098   -1.96272950   -0.26210798
 C   -2.80309139   -1.06252342   -0.64661947
 C   -2.41879100    0.31134261   -1.03959706
 O   -1.75852481    1.02022737   -0.08537166
 C   -1.77204085    2.38673029   -0.32277051
 C   -0.83606331    3.13471829    0.56742423
 N    0.53479727    2.88323337    0.30671854
 C    1.14976599    1.62625822    0.35746749
 C    2.61799010    1.43583395    0.01949873
 O    3.12748107    0.30593817    0.03635654
 C    3.52887913   -0.84550690    0.32705524
 C    2.56014513   -1.93625833    0.46975618
 O   -1.63103644   -4.01974366    0.34033829
 O    0.41352316    0.71847774    0.67890636
 O    3.00707426   -3.05277636    0.89039172
 H    0.81536857   -3.80112498   -0.34003819
 H    0.61866518   -3.40855367    1.40932025
 H   -3.66503270   -0.90414595    0.14732481
 H   -3.46641310   -1.43835871   -1.56296280
 H   -3.34663231    0.85381242   -1.40829519
 H   -1.76142045    0.27083704   -1.98241522
 H   -1.49845678    2.53826778   -1.40522529
 H   -2.80278923    2.81733503   -0.16476039
 H   -1.05309218    4.22524864    0.57514194
 H   -1.00741981    2.83912577    1.65477917
 H    3.17947080    2.30086636    0.53960219
 H    2.64107228    1.87633664   -1.06796139
 H    4.13028768   -0.90952003    1.34193628
 H    4.40179413   -1.26382017   -0.34445330
 H   -2.87065887   -2.89781066   -0.13439167
 H    1.16596394    3.64639148    0.06007460
34
{"name": "Conformer 5059", "statusflags": ["topofail"], "energy": 249.94675222777892}
 O    0.86389419    2.11294379   -0.78507335
 C    0.07286601    3.23993500   -0.78152296
 C   -1.27120151    2.98151054   -0.17639567
 N   -1.93392979    1.99330211    0.35482851
 C   -2.63194244    0.95254596    0.91431753
 C   -1.89006656   -0.34522589    0.99497910
 O   -1.40207571   -0.82326296   -0.15244534
 C   -1.08361582   -2.21088368   -0.04367993
 C   -0.28576648   -2.45987480   -1.38044267
 N    0.93320782   -1.69715388   -1.19647804
 C    2.02534516   -2.23898268   -0.47487615
 C    3.25491613   -1.44563807   -0.17367584
 O    2.91592571   -0.10055274   -0.65746779
 C    2.05110535    0.23294061    0.43094664
 C    1.23401699    1.40153002    0.33565718
 O   -2.02654747    4.08082119   -0.17925313
 O    1.91147024   -3.39069145   -0.12618169
 O    0.72633027    1.92033690    1.42446723
 H    0.54574498    4.12245894   -0.28876553
 H   -0.15606817    3.47653424   -1.85721914
 H   -3.64951666    0.70048609    0.42641714
 H   -3.00554518    1.14745833    1.98670372
 H   -2.59864527   -1.06396355    1.48081751
 H   -1.03954671   -0.29285745    1.73588610
 H   -1.98292323   -2.77524294   -0.08487411
 H   -0.40937209   -2.42991568    0.76585572
 H   -0.89587328   -2.08815149   -2.18276949
 H   -0.07330583   -3.51926558   -1.40090452
 H    3.49370890   -1.44545013    0.86288134
 H    4.05978493   -1.79901181   -0.81778742
 H    2.77508540    0.40678404    1.30405710
 H    1.45670175   -0.64161504    0.76088296
 H   -3.02875430    2.78550111    0.54848253
 H    1.04459270   -0.78734900   -1.56736755
34
{"name": "Conformer 5248", "statusflags": ["topofail"], "energy": 260.75920697114395}
 O    0.83614648    2.62501034   -0.09056554
 C    0.03975752    3.70085693    0.22901184
 C   -1.35208729    3.05415603    0.54094861
 N   -1.55615606    1.72178227    0.43117180
 C   -1.75685748    0.41178563    0.32325899
 C   -2.80399098   -0.45412871   -0.24560674
 O   -2.22037520   -1.70597735   -0.22638420
 C   -1.82093463   -2.34608935    0.87518983
 C   -0.51561802   -3.19612008    0.51655974
 N    0.48479464   -2.26912679    0.15466750
 C    1.76968977   -2.43872081   -0.34873857
 C    2.65642861   -1.25462315   -0.69176721
 O    2.00178528   -0.04571549   -0.43373526
 C    2.76032675    1.07149999   -0.73957102
 C    2.08962258    2.37497810   -0.46428092
 O   -2.26954841    3.74674906    0.89059432
 O    2.16927821   -3.56232298   -0.50888859
 O    2.80387502    3.45571832   -0.59207308
 H   -0.07084647    4.45014874   -0.54265398
 H    0.31469281    4.08085301    1.23171023
 H   -1.36351865   -0.12295108    1.31045990
 H   -0.86103335    0.10546241   -0.43981286
 H   -3.70856407   -0.50700152    0.45568215
 H   -3.12365433   -0.18674561   -1.24191013
 H   -2.56898258   -3.17627085    1.07623890
 H   -1.66310560   -1.84558051    1.81033265
 H   -0.83933003   -3.92445993   -0.23743663
 H   -0.26378417   -3.74883749    1.43675104
 H    2.81738666   -1.30435410   -1.80129451
 H    3.60246047   -1.39262318   -0.18011934
 H    3.63843152    1.06111877   -0.01754432
 H    3.25889571    1.03081759   -1.73411848
 H   -2.78551852    1.86407946    0.99029000
 H    0.30033383   -1.27336767    0.34066512
34
{"name": "Conformer 5352", "statusflags": ["topofail"], "energy": 284.02230610070126}
 O   -1.80856359    0.94283119   -0.98966261
 C   -2.18456937    0.06860198   -1.88710299
 C   -1.87716694   -1.37006204   -1.44214290
 N   -1.33978434   -1.63495666   -0.18825450
 C   -0.83185729   -2.85081533    0.33258664
 C    0.54519079   -3.20379903   -0.25187779
 O    1.56581407   -2.47635193   -0.01809580
 C    2.15657855   -1.32636430   -0.13012491
 C    1.29912106   -0.24195922    0.48463302
 N    1.61160048    1.06409893    0.56756103
 C    1.92173752    2.36001707    0.64988938
 C    1.08100526    3.57044443    0.17248924
 O   -0.09037877    3.01998646   -0.34021776
 C   -0.91114934    2.54868286    0.66547161
 C   -1.92100876    1.53101086    0.16569037
 O   -2.09489274   -2.27785784   -2.19328843
 O    3.03025039    2.63437329    1.17498496
 O   -2.89667963    1.23240796    0.92593216
 H   -1.71996506    0.25522842   -2.87383330
 H   -3.30867161    0.06249169   -2.12734959
 H   -1.51288062   -3.67328848   -0.05065759
 H   -0.81439936   -2.91861135    1.42618080
 H    0.70498272   -4.26082356    0.15958874
 H    0.31893066   -3.44092137   -1.34709129
 H    3.12941618   -1.30022210    0.48591338
 H    2.52658034   -1.02626918   -1.15293799
 H    0.50503074   -0.18357582   -0.42888785
 H    0.78504837   -0.70347838    1.34179866
 H    0.90691950    4.14128883    1.09423741
 H    1.65933552    4.09490968   -0.58781031
 H   -1.47027456    3.38035334    1.09636150
 H   -0.31835812    2.10200513    1.49069205
 H   -1.39328839   -0.83911433    0.46447523
 H    2.74634633    0.71973881    1.22896518
34
{"name": "Conformer 5478", "statusflags": ["topofail"], "energy": 299.239125433183}
 O    0.10228746    1.93305067    0.19221545
 C    1.13452212    2.54040718    0.76104811
 C    2.35075309    1.68879103    0.76277899
 N    2.75573066    0.46198033    0.38553264
 C    3.15673090   -0.75266385    0.01203770
 C    2.31748889   -1.82525143   -0.54986172
 O    1.28015536   -2.35523031    0.18071335
 C    0.19721800   -1.58978337    0.12040313
 C   -0.97415523   -1.89512580    1.05932128
 N   -1.97250764   -0.91665361    0.62413596
 C   -2.66932875   -1.10690770   -0.57670588
 C   -3.60613598   -0.11332772   -1.22255888
 O   -3.41996351    1.04091839   -0.31776139
 C   -2.10377177    1.29851242   -0.62816680
 C   -1.26899149    2.22074145    0.11160109
 O    3.40275826    2.29343728    1.31017037
 O   -2.48911258   -2.18614097   -1.13190427
 O   -1.66708962    3.22868691    0.68104300
 H    1.42397888    3.54919375    0.33133581
 H    0.92322352    2.80311729    1.84525685
 H    3.76344580   -1.32574432    0.85874921
 H    4.06245371   -0.72676072   -0.75566630
 H    1.95375027   -1.55184394   -1.60305834
 H    2.99862493   -2.71206577   -0.80173088
 H    0.51045328   -0.54119636    0.33554088
 H   -0.26006615   -1.54409069   -0.91214127
 H   -1.33533555   -2.91784537    0.89108102
 H   -0.71956975   -1.67932091    2.10743365
 H   -4.64665706   -0.42243649   -1.19944281
 H   -3.18425174    0.20957850   -2.17104339
 H   -2.26564425    1.85826216   -1.69155673
 H   -1.59058383    0.41530759   -1.01502978
 H    4.02082227    0.76280835    0.79551880
 H   -2.18123248   -0.14240398    1.21071115
34
{"name": "Conformer 5822", "statusflags": ["topofail"], "energy": 306.12592391412903}
 O    1.29865560    1.29008986   -1.63007872
 C    0.77762763    2.43888681   -1.20782132
 C   -0.34307966    2.61778868   -0.34274581
 N   -1.35457702    2.15148543    0.40997085
 C   -2.35739723    1.68921211    1.15622994
 C   -2.68188819    0.28285169    1.50481734
 O   -2.77359169   -0.51627721    0.31187644
 C   -1.41254739   -0.85283212    0.08455480
 C   -1.06000838   -2.09161443    0.94583274
 N    0.37002773   -2.19363284    1.00934393
 C    1.16475734   -2.10613729   -0.13924909
 C    2.63896486   -2.11234866   -0.12190498
 O    3.10781461   -1.88652374   -1.41922742
 C    2.43440762   -0.81629143   -1.98989094
 C    2.08864747    0.30211034   -1.10033647
 O   -0.48159257    4.00679740   -0.20124646
 O    0.54738639   -1.98813788   -1.18454311
 O    2.44891872    0.43834894    0.09705596
 H    1.68917708    3.07547318   -0.76935369
 H    0.62088092    3.08145135   -2.18374552
 H   -2.38455640    2.26389379    2.21639107
 H   -3.42267715    2.09636821    0.81728023
 H   -1.98793797   -0.15267296    2.22081263
 H   -3.68967285    0.28760107    1.94917335
 H   -1.38400910   -1.12355386   -0.97186200
 H   -0.70347703   -0.08667021    0.33295334
 H   -1.50401629   -2.97574261    0.41144896
 H   -1.56618412   -2.00722292    1.90281349
 H    3.10139664   -1.53481190    0.66800609
 H    2.97481742   -3.19508081    0.11385375
 H    1.61768488   -1.12227859   -2.61578901
 H    3.16728432   -0.35316957   -2.78327690
 H   -1.78907191    3.42430212    0.62562730
 H    0.84783570   -2.33166192    1.88302923
34
{"name": "Conformer 6064", "statusflags": ["topofail"], "energy": 255.87667750707573}
 O   -0.08782134   -3.06545677    0.24465467
 C    0.86663689   -2.96722631    1.31156198
 C    1.76522979   -1.81419973    0.93877641
 N    1.67578547   -1.04221083   -0.22727183
 C    2.54350802    0.06297325   -0.48899999
 C    2.53664635    1.17120623    0.46031615
 O    1.53763165    1.93639421    0.80404465
 C    0.76371388    2.72018942    0.11326140
 C   -0.31474405    2.33135280   -0.81581903
 N   -1.45603093    1.69449452   -0.39257909
 C   -2.55846143    1.07932961    0.01625855
 C   -3.26666850   -0.19123691   -0.36669259
 O   -2.59901703   -0.85210717   -1.33941637
 C   -1.92877980   -1.98939992   -1.02711524
 C   -0.96552495   -1.96764349    0.05591898
 O    2.67535337   -1.48752258    1.69828134
 O   -3.16646816    1.74571258    0.96376558
 O   -0.85186774   -1.02036152    0.84722781
 H    1.39936271   -3.90167157    1.46459908
 H    0.30419875   -2.63115733    2.19971252
 H    3.60233755   -0.36651047   -0.47407240
 H    2.43864217    0.35555409   -1.56097900
 H    2.99770619    0.75547640    1.42472304
 H    3.39676525    1.90560051    0.17342629
 H    1.33725260    3.59127231   -0.40271930
 H    0.20252764    3.37123902    0.89434720
 H   -0.61277102    3.30323213   -1.36144853
 H    0.10448614    1.76164025   -1.72046391
 H   -4.31746652    0.06221549   -0.68316481
 H   -3.28896777   -0.79287090    0.57811235
 H   -2.68103134   -2.83852890   -0.91151170
 H   -1.40014913   -2.30457099   -1.98894923
 H    0.99835931   -1.32487255   -0.91871877
 H   -1.65037404    2.70966511    0.49093379
34
{"name": "Conformer 6341", "statusflags": ["topofail"], "energy": 279.1986247542145}
 O    2.78394435    1.64133797    0.08896377
 C    3.61152454    0.40892567    0.03271359
 C    2.66966436   -0.58037762    0.56115834
 N    2.63457736   -1.94211972    0.85787314
 C    1.25085794   -2.43262102    1.28490956
 C    0.44417574   -2.51875061    0.06839318
 O   -0.97531137   -2.58304347    0.19219612
 C   -1.37686347   -1.28840099    0.11176907
 C   -2.89984600   -1.00487342    0.04145364
 N   -2.94792927    0.34732466   -0.20237069
 C   -2.99437833    1.65277012   -0.43776436
 C   -1.85090989    2.65644896   -0.64315746
 O   -0.68886565    2.00733600   -0.57226665
 C    0.52808982    2.68672730   -0.57972257
 C    1.61616675    1.64601836   -0.55255304
 O    1.48012423   -0.11884245    0.86718010
 O   -4.12221263    2.15675696   -0.50185899
 O    1.29143304    0.60785842   -1.26139136
 H    3.91600847    0.26847991   -1.01839536
 H    4.48959761    0.56356285    0.68226262
 H    0.88399359   -1.81069844    2.11371550
 H    1.46351649   -3.43422543    1.68770354
 H    0.63125231   -1.80428384   -0.72199878
 H    0.66572446   -3.52384706   -0.45132592
 H   -0.96954308   -0.82129644   -0.80803833
 H   -1.09411565   -0.69759403    1.04652868
 H   -3.33480406   -1.62257911   -0.76705578
 H   -3.32025318   -1.29278177    1.05513148
 H   -2.00991780    3.09838193   -1.66283860
 H   -1.95454094    3.45438075    0.13793113
 H    0.53585970    3.34980474    0.28010214
 H    0.58264342    3.20568153   -1.55105828
 H    3.36593143   -2.54857600    0.81159194
 H   -4.30559428    0.27311528   -0.18978137
34
{"name": "Conformer 6357", "statusflags": ["topofail"], "energy": 291.55612804317167}
 O    0.38436630    2.27155920    0.69837317
 C   -0.79991650    2.64022477    0.22165627
 C   -1.95318981    1.88962334   -0.17427553
 N   -2.55953652    0.71261821   -0.33069669
 C   -3.16965389   -0.47166153   -0.48809259
 C   -2.59268518   -1.83736106   -0.31020108
 O   -1.57650810   -2.20681111   -1.13992341
 C   -0.39366044   -1.56354812   -0.95001284
 C    0.24605190   -2.00389126    0.38980803
 N    1.43365265   -1.26114148    0.62202911
 C    2.53913654   -1.22168425   -0.23017967
 C    3.74438047   -0.32855273    0.07544917
 O    3.41741422    0.33907627    1.21782662
 C    2.64001011    1.42127344    1.19531885
 C    1.49309576    1.60833204    0.30297681
 O   -2.90280932    2.80859095   -0.59267734
 O    2.54640124   -1.90411937   -1.22425551