53
{"name": "Conformer 4", "statusflags": ["topofail"], "energy": 242.68449868639}
 C    3.69187839    0.28710481    0.35857273
 C    4.91427006    0.86660729    0.42360707
 C    5.99450456    0.19657845    1.01405421
 C    5.77581016   -1.05279743    1.51879037
 C    4.52137893   -1.64343087    1.45176526
 C    3.46507324   -0.98707821    0.87357349
 C    1.68290604   -2.09645470    2.00845539
 C    0.29274114   -2.51111661    1.71775745
 C   -1.69220772   -2.70195624    0.24040175
 C   -2.60910751   -1.82079752    1.11586078
 C   -2.31382548   -0.35836055    0.68746693
 C   -1.80226272    0.69276500   -1.36135197
 C   -1.61731787    2.05872610   -0.80888838
 C   -0.80313095    2.90325749   -1.77800193
 C    1.83475792    2.55626647   -1.97358849
 C    2.90974092    1.80731363   -1.31586433
 C   -4.09103666    0.36301285   -0.84292354
 C   -5.32160692   -0.35826251   -0.48516446
 C   -5.47699636   -0.34246196    1.02619871
 O    2.61039758    0.97983101   -0.24353534
 O    2.20636607   -1.52248074    0.78418801
 O   -0.43039969   -3.02252015    2.54528555
 O    2.31715850    3.28441017   -2.95794600
 N   -0.32846101   -2.34603070    0.45977556
 N   -2.79537032   -0.07877190   -0.58641232
 N    0.51996661    2.72919965   -1.87608508
 N   -5.57312134   -0.33950527    2.13130612
 H    5.12026746    1.86164225    0.02962950
 H    6.97366307    0.68362410    1.05637052
 H    6.58332800   -1.58053470    1.97170410
 H    4.35852172   -2.65439887    1.86446907
 H    1.81353943   -1.44005102    2.86740357
 H    2.29034987   -3.03422855    2.12938302
 H   -1.97118245   -2.50002851   -0.79266949
 H   -1.89582739   -3.74232789    0.48599716
 H   -2.52321019   -1.96317932    2.15920873
 H   -3.59815225   -2.05798699    0.74942681
 H   -1.19941260   -0.20135876    0.71427602
 H   -2.67748492    0.25519261    1.52988170
 H   -2.30203199    0.78670631   -2.37416734
 H   -0.86104218    0.17039200   -1.51196597
 H   -2.51600115    2.62887786   -0.61932880
 H   -0.95117753    1.98533015    0.10759982
 H   -1.39168548    2.77308861   -2.77043188
 H   -1.09398206    3.99894654   -1.48636476
 H    3.60827121    2.62709498   -0.89354745
 H    3.59222334    1.30392661   -2.05012884
 H   -4.16042061    0.54881257   -1.96991461
 H   -4.25696981    1.44039388   -0.45885090
 H   -5.45666590   -1.35783099   -0.87871855
 H   -6.19222574    0.23946888   -0.83254368
 H    0.27204311   -1.95652842   -0.26212505
 H    0.55315953    3.64190908   -2.89189024
53
{"name": "Conformer 211", "statusflags": ["topofail"], "energy": 444.6835505303704}
 C   -4.05751071    0.69614059    0.31575305
 C   -5.22175590    1.47020542    0.37476004
 C   -6.43451343    0.87592949    0.29832731
 C   -6.61165028   -0.45937586    0.14986167
 C   -5.46899594   -1.26776928    0.08104673
 C   -4.18343951   -0.70468511    0.16012282
 C   -2.75849528   -2.70313292   -0.44918834
 C   -1.33793244   -2.87871955   -0.06671565
 C    0.96424021   -2.19750047    0.95765312
 C    2.23538128   -2.13310384    0.19974314
 C    3.16267529   -1.20928586    0.93208798
 C    2.28516143    0.94781577    0.09791022
 C    2.44862630    2.32764617    0.67574248
 C    1.40457369    3.26453389    0.09386199
 C   -1.14031537    2.90183440   -0.23947150
 C   -2.51861274    2.47673433   -0.26678401
 C    4.30535875    0.08337984   -0.71714598
 C    5.53939750   -0.53114414   -0.17839817
 C    6.59965458   -0.33313882   -1.13698245
 O   -2.81031435    1.26744460    0.39402537
 O   -3.17871413   -1.55323481    0.06151813
 O   -1.13462324   -4.21951688   -0.69757013
 O   -1.24772051    4.10289579   -1.04630686
 N   -0.23524708   -2.55240877    0.42394285
 N    3.38745587    0.11266909    0.52776375
 N    0.08765233    2.80401532    0.06381948
 N    7.56655084   -0.16018200   -2.01861603
 H   -5.17370432    2.54935317    0.47204592
 H   -7.33998483    1.53302857    0.31992840
 H   -7.60459409   -0.90342503    0.08764301
 H   -5.59583458   -2.31458996   -0.01462687
 H   -3.27011758   -3.65615583   -0.21982786
 H   -2.77506082   -2.70529740   -1.61832673
 H    0.83196163   -1.18484272    1.47205194
 H    1.18980697   -2.82142375    1.95773832
 H    2.07082960   -1.81673792   -0.84264512
 H    2.79626827   -3.13464765    0.19474988
 H    2.69858244   -1.09497227    1.99067800
 H    4.12832246   -1.67919261    1.17970315
 H    2.41688438    1.04673855   -1.03473991
 H    1.33420897    0.46836538    0.26792407
 H    3.41612753    2.73803733    0.45547576
 H    2.24771928    2.28638307    1.80377171
 H    1.59202643    4.20774032    0.75335703
 H    1.78057085    3.68710421   -0.90866558
 H   -3.03247267    3.25085667    0.41565270
 H   -2.91307894    2.45034985   -1.27358699
 H    3.75958234   -0.43139352   -1.48768065
 H    4.41109548    1.11704832   -0.97067948
 H    5.32132953   -1.69452506   -0.14754742
 H    5.73059885   -0.23291269    0.83635266
 H    0.24086391   -3.85512885    0.37974448
 H    0.09118172    1.76219346    0.67476127
53
{"name": "Conformer 386", "statusflags": ["topofail"], "energy": 293.35149465691615}
 C    3.04049940    0.44178727    1.24242566
 C    3.36415513    1.39200658    2.23180429
 C    4.06985741    1.11943603    3.36623336
 C    4.49918742   -0.15305582    3.57471841
 C    4.20759710   -1.08659552    2.64820030
 C    3.48448731   -0.85862313    1.46126216
 C    3.05319631   -2.79800209   -0.19954336
 C    1.64791050   -3.03795876   -0.67586576
 C   -0.73551648   -1.90956551   -0.21482198
 C   -1.38836959   -1.30517402   -1.47332278
 C   -2.71437486   -0.71859369   -1.22576737
 C   -1.86028660    1.36424148   -0.29243735
 C   -1.76135069    2.18463649   -1.57865648
 C   -0.63453196    3.23148192   -1.30905209
 C    1.11621686    1.51901300   -1.70496800
 C    2.23134931    0.61645531   -1.11134585
 C   -4.15735207    0.85675859   -0.11825755
 C   -5.05359083   -0.14252929    0.58326930
 C   -4.55923509   -0.60059136    1.81534101
 O    2.33490225    0.89335399    0.20516641
 O    3.27572674   -1.87366177    0.62831399
 O    1.59366566   -4.04116668   -1.52740433
 O    0.81675438    1.44091494   -2.84546137
 N    0.47949910   -2.48476892   -0.44983116
 N   -2.84073405    0.36999347   -0.34805244
 N    0.46853035    2.42571375   -0.85839104
 N   -4.14539103   -1.00831082    2.86806180
 H    2.99761530    2.41243577    2.02399585
 H    4.27202458    1.92811293    4.07753212
 H    5.07422984   -0.37149254    4.49259818
 H    4.54278053   -2.13003099    2.78519489
 H    3.60664271   -2.68538926   -1.22294836
 H    3.40704836   -3.85322719    0.15220055
 H   -0.54479701   -1.09150022    0.55848546
 H   -1.52396293   -2.53313711    0.31665099
 H   -1.50373737   -2.22271297   -2.13473939
 H   -0.67725274   -0.67544156   -2.00830454
 H   -3.09960203   -0.36181226   -2.23374961
 H   -3.38372237   -1.57750400   -0.88657937
 H   -0.86904359    1.07835393    0.06703825
 H   -2.20757407    2.13740914    0.47326028
 H   -2.69139981    2.73556813   -1.69128393
 H   -1.49157646    1.64350352   -2.45677583
 H   -0.95932695    4.01419543   -0.63429283
 H   -0.38669789    3.63436892   -2.30907276
 H    3.18637820    0.90093069   -1.66485604
 H    1.91894565   -0.37155909   -1.45614861
 H   -4.68753514    1.21411699   -1.00213062
 H   -4.07686114    1.73193546    0.58184321
 H   -6.00404393    0.44400072    0.78902531
 H   -5.40517925   -0.93631798   -0.11875067
 H   -0.14065702   -3.39271604   -1.26803678
 H    0.81450256    2.49071411    0.07822647
53
{"name": "Conformer 477", "statusflags": ["topofail"], "energy": 350.3501951038131}
 C    3.60293317    0.57669828   -0.85542104
 C    4.46232581    1.36053378   -1.60482513
 C    5.47365671    0.82667116   -2.32390411
 C    5.67387872   -0.50495417   -2.33211919
 C    4.83075853   -1.30456824   -1.58563999
 C    3.77726759   -0.78650493   -0.82715908
 C    2.87351206   -2.28733425    1.01416858
 C    1.31880857   -2.79431906    0.91773106
 C   -0.65607824   -2.39686144   -0.89623077
 C   -1.62482436   -1.74186032    0.01352555
 C   -2.74834634   -0.94817371   -0.51231532
 C   -2.29844221    0.74774602    1.16280605
 C   -2.18261220    1.97724167    0.33682494
 C   -1.06099007    2.82486042    0.93116734
 C    1.40430907    2.86618742    1.06607847
 C    2.76652234    2.33558411    0.67409090
 C   -4.47720309    0.49147887    0.40867865
 C   -5.73906588   -0.21832623    0.33853725
 C   -6.08742020   -1.09692617   -0.71267649
 O    2.59144870    1.22191096   -0.17491894
 O    2.96806763   -1.54184882   -0.10270364
 O    1.22210997   -3.52838795    2.04322953
 O    1.30526021    3.81970582    1.78709414
 N    0.55040637   -2.63966464    0.21192833
 N   -3.28862193   -0.20506946    0.64062873
 N    0.22600211    2.27726924    0.59613840
 N   -6.35939076   -1.82708877   -1.58170273
 H    4.28729912    2.46045594   -1.58246843
 H    6.13923132    1.51028660   -2.90934586
 H    6.47309464   -0.95928396   -2.91882330
 H    4.91978651   -2.37592500   -1.55410378
 H    2.88584437   -1.78064875    1.97205551
 H    3.37595312   -3.25855084    1.03699312
 H   -0.79392875   -3.33847365   -1.31864774
 H   -0.04441149   -1.73978029   -1.52352289
 H   -2.14800197   -2.69368394    0.52172023
 H   -1.14463055   -1.34635634    0.94574366
 H   -2.51235467   -0.23161470   -1.32102084
 H   -3.57839848   -1.58372172   -0.85915025
 H   -2.71627302    1.07407530    2.15785899
 H   -1.33141293    0.35176329    1.32318422
 H   -1.98236489    1.77321591   -0.72731710
 H   -3.11683814    2.58126133    0.46858142
 H   -1.09719819    2.74928410    2.06547387
 H   -1.17482132    3.90594507    0.72290797
 H    3.28023570    2.01210757    1.58603734
 H    3.36201914    3.13207093    0.20330384
 H   -4.60738167    1.38565756    1.11570682
 H   -4.34534033    1.08541032   -0.60356955
 H   -5.93585491   -0.77099928    1.34987020
 H   -6.62777922    0.54697733    0.45335371
 H   -0.40958294   -3.45196026    0.74852458
 H    0.31883725    1.45848787    0.01364275
53
{"name": "Conformer 576", "statusflags": ["topofail"], "energy": 245.57863204912013}
 C    3.88061741    0.66664299   -0.52931295
 C    5.09459300    1.27616043   -0.56462874
 C    6.28736975    0.54898394   -0.63066202
 C    6.23776707   -0.82732584   -0.65999272
 C    4.98405387   -1.42571450   -0.62155453
 C    3.81121550   -0.72355352   -0.55778119
 C    2.17137200   -2.42854860    0.26867582
 C    0.71579576   -2.62568625   -0.12203273
 C   -1.55084748   -3.68587184    0.12614925
 C   -2.39714980   -2.54533089    0.57069500
 C   -2.58414653   -1.35060414   -0.23533648
 C   -2.71841633    1.04688345    0.07325206
 C   -1.21920802    1.25828479    0.17948695
 C   -1.11760263    2.75527402   -0.20126862
 C    1.41363635    3.50167242   -0.67331443
 C    2.67105877    2.77075902   -0.70717871
 C   -4.37006311   -0.40700396    1.05457760
 C   -5.06644239    0.81463450    1.55032487
 C   -5.43905795    1.73217348    0.47696834
 O    2.67492355    1.40736578   -0.46580779
 O    2.60833541   -1.36769134   -0.52230341
 O    0.32101070   -1.86331942   -0.99145460
 O    1.49303357    4.74051440   -0.90884729
 N   -0.15962683   -3.53866408    0.40382218
 N   -3.10691167   -0.20891216    0.52521230
 N    0.17057861    3.13509245   -0.44149253
 N   -5.71746752    2.47176459   -0.37866303
 H    5.20783104    2.36580344   -0.54573430
 H    7.25038524    1.03079398   -0.65631902
 H    7.14961370   -1.41655461   -0.71436535
 H    4.97750731   -2.50393660   -0.64335833
 H    2.69516519   -3.38172405    0.05730993
 H    2.25596609   -2.22675240    1.35565919
 H   -1.89150371   -4.66369385    0.58244608
 H   -1.74271509   -3.85697139   -0.97597428
 H   -1.94752926   -2.21161716    1.58096309
 H   -3.36012112   -3.01216775    0.92322462
 H   -1.74780124   -0.92442902   -0.77551779
 H   -3.44416628   -1.58173863   -0.96039046
 H   -3.07140019    1.24012488   -0.97724043
 H   -3.14494117    1.85392272    0.72454465
 H   -0.89092693    1.22605980    1.23339535
 H   -0.59159349    0.62047507   -0.41108358
 H   -1.70076369    3.29949440    0.61336577
 H   -1.75227916    2.83598748   -1.13797906
 H    3.16796974    2.92570374   -1.72745221
 H    3.43953447    3.22028587   -0.00868799
 H   -4.27221776   -1.07575955    1.96993178
 H   -5.09549649   -0.89255836    0.33810073
 H   -4.53619588    1.32226280    2.38282966
 H   -6.03895012    0.47774100    2.00708725
 H    0.26770565   -4.21012113    1.08864228
 H   -0.27149791    4.41138960   -0.59198626
53
{"name": "Conformer 604", "statusflags": ["topofail"], "energy": 271.0183834285799}
 C    3.99890710    0.95217520    0.50454628
 C    5.15869870    1.66140905    0.53227093
 C    6.32886186    1.04083449    0.07976031
 C    6.31147763   -0.22871402   -0.37203327
 C    5.11816377   -0.94533895   -0.39883713
 C    3.96056630   -0.37135432    0.03265166
 C    2.45575070   -2.04122612   -0.94620776
 C    1.11767238   -2.67766349   -0.66221117
 C   -0.77377460   -2.40619756    1.21069176
 C   -2.19304655   -2.18045698    0.94745782
 C   -2.89320051   -0.94508863    0.78762551
 C   -2.18677949    1.13658651   -0.28645445
 C   -2.35700350    2.07445203    0.88907720
 C   -1.66418898    3.40062195    0.63325169
 C    0.64654262    2.43577486    0.71235030
 C    1.97012128    2.21127424    0.07390283
 C   -3.63944253   -0.35740034   -1.43235620
 C   -5.08807677   -0.68908099   -1.37666081
 C   -5.27227338   -1.96906541   -0.63477408
 O    2.75230515    1.41573304    0.92214005
 O    2.76360405   -1.08923790    0.00594962
 O    0.85415732   -3.59167383   -1.57573850
 O    0.38083326    1.97128302    1.79884127
 N    0.20683759   -2.54692431    0.23970932
 N   -2.99341791   -0.02575860   -0.20112932
 N   -0.35071091    3.18391512    0.08541166
 N   -5.41548427   -2.92518493   -0.09807401
 H    5.17733609    2.67894289    0.89436912
 H    7.24937852    1.66842366    0.12321737
 H    7.23770667   -0.70814886   -0.71938771
 H    5.13297288   -1.97079478   -0.77530949
 H    2.38692124   -1.56131809   -1.97128226
 H    3.24491677   -2.81352673   -1.06984277
 H   -0.63388036   -3.19964275    2.05007815
 H   -0.37208677   -1.48819318    1.85030332
 H   -2.41548343   -2.88578113    0.01469159
 H   -2.77635381   -2.81771814    1.72438072
 H   -2.49952571   -0.29452281    1.72782084
 H   -3.98583679   -1.04085112    1.23387892
 H   -1.12041367    0.87135567   -0.36038714
 H   -2.48795463    1.68797072   -1.23405635
 H   -3.43324893    2.28253432    0.99600069
 H   -1.98838139    1.63701115    1.82869982
 H   -1.49130346    3.83528089    1.65607874
 H   -2.25838372    4.10959049    0.05735860
 H    2.49986167    3.15901078   -0.13942468
 H    1.84112895    1.70326577   -0.93008377
 H   -3.54267953    0.54179332   -2.08530677
 H   -3.14083644   -1.17144859   -1.98658311
 H   -5.71762887    0.09255317   -0.86842494
 H   -5.46640024   -0.81296990   -2.41647241
 H   -0.52627788   -3.57940367   -0.25728492
 H   -0.11064746    3.58289380   -0.81419307
53
{"name": "Conformer 757", "statusflags": ["topofail"], "energy": 244.5457306395538}
 C    3.86262989   -0.23813323   -0.44889786
 C    5.17760811   -0.35768741   -0.06793641
 C    6.19043537    0.34252848   -0.68835228
 C    5.90779513    1.19596939   -1.72534173
 C    4.59178270    1.33147178   -2.12420399
 C    3.57174223    0.62340263   -1.49271399
 C    1.51581573    0.32252061   -2.93506985
 C    0.17092967    1.01066915   -2.70718352
 C   -1.18079065    2.59679717   -1.31424854
 C   -2.30219450    1.66928679   -0.97163926
 C   -1.85173345    0.75980161    0.17070426
 C   -2.61052575   -1.10667358    1.46862199
 C   -2.10211374   -2.33850864    0.87842490
 C   -0.79756676   -2.56374617    0.27197947
 C    1.50066578   -2.26437129    1.65307011
 C    2.78016974   -1.54900332    1.34865063
 C   -3.71042972    0.99697886    1.50092993
 C   -5.10667863    0.63158381    1.82199676
 C   -5.90362210    0.48869129    0.58414464
 O    2.82794822   -0.91644760    0.13294412
 O    2.31167089    0.80682878   -1.92214961
 O   -0.79469721    0.83268155   -3.40292984
 O    1.46180018   -2.87299465    2.79118700
 N    0.00915297    1.90827131   -1.63727601
 N   -2.94800729    0.04089991    0.70950120
 N    0.36462673   -2.41233870    0.97035471
 N   -6.54613220    0.36474038   -0.38439325
 H    5.43185590   -1.01557003    0.73927485
 H    7.22467142    0.19995077   -0.33636813
 H    6.69774557    1.75163572   -2.23161515
 H    4.34127193    1.99731956   -2.93803055
 H    1.28786620   -0.75768569   -2.79946126
 H    1.84805412    0.56358347   -3.96932633
 H   -1.49115152    3.33192334   -2.11383474
 H   -1.05966953    3.26992614   -0.41576376
 H   -3.22337274    2.17814637   -0.70865270
 H   -2.49289004    1.04384883   -1.90232619
 H   -0.95931653    0.21512867   -0.08503813
 H   -1.53133305    1.49184869    0.97715847
 H   -1.90725798   -0.79325593    2.33610823
 H   -3.53825953   -1.36654265    2.14637528
 H   -2.85432387   -2.58751818    0.02650036
 H   -2.38605845   -3.24750335    1.56301262
 H   -0.71219038   -1.94692691   -0.67567540
 H   -0.88600225   -3.62079203   -0.22682875
 H    3.03005569   -0.84955681    2.19520473
 H    3.57114931   -2.34760717    1.44862204
 H   -3.09320398    1.05453414    2.48374793
 H   -3.62504583    1.98784902    1.09533158
 H   -5.55309209    1.55694180    2.30777271
 H   -5.26670517   -0.16164014    2.54337346
 H    0.85362457    2.04825211   -1.06658318
 H   -0.09670312   -3.29950867    1.87999053
53
{"name": "Conformer 959", "statusflags": ["topofail"], "energy": 264.3727093813104}
 C    3.70022620    1.42084102    0.15753674
 C    4.92411262    2.09403355    0.25126349
 C    6.13420962    1.46004717    0.33957897
 C    6.12102604    0.11165300    0.33145784
 C    4.91445545   -0.60446530    0.24204548
 C    3.68711851    0.04871802    0.15522440
 C    2.59432467   -1.97516617   -0.34922925
 C    1.55990776   -2.95407108   -0.48256117
 C   -1.02105095   -3.61143233   -0.25344056
 C   -2.01645251   -2.58959922    0.21434553
 C   -2.33785413   -1.53472334   -0.77723507
 C   -2.92076259    0.77451221   -0.51813946
 C   -1.59934262    1.16355752    0.08527912
 C   -1.30127232    2.64202950   -0.27575780
 C    0.95507595    3.77296594   -0.33174687
 C    2.48073448    3.56331384   -0.22047586
 C   -4.57113514   -0.94170982    0.00021015
 C   -5.38730896    0.24308915    0.46583091
 C   -6.74425975   -0.00069768    0.74545588
 O    2.57152357    2.15780267    0.06472630
 O    2.46151328   -0.67382498    0.07329236
 O    2.20434322   -4.09048868   -0.94790327
 O    0.51749598    4.86481222   -0.58723401
 N    0.30594505   -3.27341435   -0.37123146
 N   -3.23298600   -0.57251322   -0.23859500
 N    0.11460250    2.69835368   -0.14925266
 N   -7.93464096   -0.19907321    1.00579423
 H    4.87235124    3.19233513    0.25454968
 H    7.04659634    2.02979130    0.41198643
 H    7.03479884   -0.47099047    0.39518521
 H    4.95504917   -1.67662181    0.22882294
 H    3.39238772   -2.43536603    0.39057005
 H    3.16747381   -1.91197052   -1.33352854
 H   -1.42998074   -4.00422057   -1.24785415
 H   -1.13220815   -4.51937507    0.45214424
 H   -2.88867272   -3.18322268    0.54526859
 H   -1.62920427   -2.13790609    1.18355440
 H   -1.40365155   -1.01301162   -1.04442144
 H   -2.74104973   -2.00674532   -1.71853698
 H   -2.84606929    1.00276307   -1.61333071
 H   -3.65663145    1.46035036   -0.05724899
 H   -1.70117554    1.18937484    1.21377481
 H   -0.73389843    0.59787272   -0.23754691
 H   -1.77959178    3.33513525    0.42336270
 H   -1.67443830    2.81155471   -1.32707708
 H    2.79161993    4.08417972    0.69114445
 H    2.98789424    3.78351122   -1.14273213
 H   -4.71657182   -1.71679412    0.80896384
 H   -5.03526738   -1.40352023   -0.91058160
 H   -4.85968765    0.69146479    1.36310731
 H   -5.38172093    1.04108818   -0.36577828
 H    0.55618322   -4.56427120   -0.75687324
 H    0.62591623    1.83004433    0.12420476
53
{"name": "Conformer 1246", "statusflags": ["topofail"], "energy": 319.13552399529436}
 C    3.72578250    1.23478681    0.19223140
 C    4.36942655    1.89478235    1.19078668
 C    5.01575091    1.25939772    2.22447307
 C    5.03825330   -0.11069609    2.29386928
 C    4.40935068   -0.81404287    1.31996823
 C    3.74614897   -0.19781447    0.26119507
 C    2.54304610   -1.56450756   -1.56902105
 C    1.19276433   -2.09223732   -1.05820309
 C   -0.96628854   -3.27802314   -1.52024311
 C   -2.03107512   -2.25516220   -1.30798301
 C   -1.82962892   -1.25719064   -0.25829762
 C   -2.56985144    1.05928174    0.14997601
 C   -1.85287016    1.63892228    1.27122005
 C   -0.38215310    1.65751467    1.46255815
 C    1.14214748    3.11070914   -0.19438272
 C    2.38659192    2.98112044   -0.97592979
 C   -4.07317253   -0.73563182    0.56239124
 C   -5.11763511   -1.29333201   -0.28680543
 C   -5.51217474   -0.17241557   -1.26940357
 O    3.07129832    1.80284330   -0.86976635
 O    3.14826976   -0.86535267   -0.65672999
 O    0.93264039   -1.82637526    0.07965783
 O    0.62975531    4.34107794   -0.38610629
 N    0.32449222   -2.80864522   -1.86062812
 N   -2.83111485   -0.31521942    0.03062614
 N    0.39966948    2.40284755    0.61271087
 N   -5.78186776    0.59696662   -1.96475404
 H    4.37908585    2.96336335    1.19056413
 H    5.52158422    1.81698450    3.00798848
 H    5.54729674   -0.60121674    3.11018429
 H    4.42823488   -1.90887664    1.36857689
 H    2.21274006   -0.93446895   -2.45105887
 H    3.03021957   -2.49474693   -1.94576337
 H   -1.33593654   -4.00097087   -2.32676506
 H   -0.92049168   -3.92691745   -0.57575843
 H   -2.94235999   -2.87598929   -1.01481543
 H   -2.29664497   -1.82851161   -2.30924916
 H   -0.90135772   -0.63071009   -0.50207837
 H   -1.59749079   -1.78929696    0.69339973
 H   -3.58908402    1.59080203    0.09994028
 H   -2.08406854    1.48581651   -0.79860704
 H   -2.25477144    2.71796935    1.49267344
 H   -2.26037885    1.09485744    2.21423075
 H   -0.17849569    1.90800598    2.56285039
 H    0.00993163    0.57187681    1.33863303
 H    2.10362057    3.10821521   -2.08527463
 H    3.06980275    3.85163079   -0.72025028
 H   -3.83223690   -1.48362723    1.38455512
 H   -4.49649714    0.13254813    1.16621764
 H   -6.04612296   -1.44222784    0.35373334
 H   -5.00199787   -2.20224717   -0.82754220
 H    0.69214586   -3.00235974   -2.80951292
 H   -0.38428300    3.48649309    0.90971840
53
{"name": "Conformer 1460", "statusflags": ["topofail"], "energy": 271.73990545462493}
 C   -2.71140962    0.67718540    1.08541011
 C   -3.29168333    0.21468178    2.20435200
 C   -4.53145367   -0.42448392    2.22141416
 C   -5.21565660   -0.59198960    1.00129040
 C   -4.58744375   -0.10210659   -0.13054520
 C   -3.40288214    0.50411226   -0.13874850
 C   -2.35964909    0.14817922   -2.30873626
 C   -1.56221079   -0.97566098   -1.70424905
 C   -0.18886592   -3.03089229   -1.77624819
 C    0.77114660   -2.48476261   -0.73185781
 C    1.54979180   -1.36305554   -1.28374436
 C    2.16233587    0.67867719   -0.33008491
 C    2.79851373    1.45496875    0.75674285
 C    2.40536230    2.92605743    0.62119317
 C   -0.21940482    3.41228082    0.78401838
 C   -1.47014014    2.68463757    0.93858020
 C    3.64760369   -1.18454607   -0.04512562
 C    3.81701023   -2.13350761    1.08782698
 C    3.56342022   -1.51321355    2.35025447
 O   -1.47141222    1.31277427    1.06803981
 O   -2.79653356    0.98107113   -1.26429050
 O   -1.45559927   -1.05861467   -0.50786238
 O   -0.45605905    4.69138609    0.69121011
 N   -0.90492609   -1.94180476   -2.44905278
 N    2.45665502   -0.68164793   -0.46035570
 N    1.08011173    3.17154198    0.70340503
 N    3.33729210   -1.00405898    3.41640775
 H   -2.83218463    0.30706140    3.20392298
 H   -4.97202972   -0.79644017    3.12856845
 H   -6.16475440   -1.07034488    1.01506460
 H   -5.15244884   -0.26367817   -1.07560055
 H   -1.80299950    0.69944180   -3.07020416
 H   -3.20338881   -0.36632543   -2.83649046
 H    0.37358412   -3.58652768   -2.54249332
 H   -0.89820128   -3.70111849   -1.24399461
 H    1.50309034   -3.34667687   -0.58226444
 H    0.23635951   -2.31018689    0.19660032
 H    0.89431575   -0.57556077   -1.77353810
 H    2.21858712   -1.76787475   -2.14954732
 H    1.03103664    0.81667112   -0.23033470
 H    2.40901743    1.23005815   -1.31497991
 H    2.47857187    1.10144229    1.75876717
 H    3.91009444    1.46325297    0.72708884
 H    3.07498595    3.51295405    1.34940807
 H    2.89977713    3.19487997   -0.39579742
 H   -2.05682242    3.20126064    1.75834463
 H   -2.08505955    2.92603041    0.00217565
 H    4.17360551   -1.69749470   -0.94176916
 H    4.45588961   -0.37130737    0.16049966
 H    3.24325846   -3.10406907    0.97882334
 H    4.90343778   -2.49206394    1.01325771
 H   -0.93373236   -1.86676807   -3.44056136
 H    1.33209663    4.49617565    0.50580995
53
{"name": "Conformer 1728", "statusflags": ["topofail"], "energy": 357.5705784308051}
 C   -3.25811108    0.36342081    0.33246903
 C   -4.02348946    0.82746994    1.42455490
 C   -5.23045890    0.29601553    1.74672311
 C   -5.68686745   -0.73072235    0.96653850
 C   -4.96712044   -1.18778763   -0.08697438
 C   -3.68241352   -0.61432564   -0.43452039
 C   -2.81980611   -2.57187080   -1.52107432
 C   -1.68268380   -3.08817811   -0.74675888
 C    0.29962688   -1.91201433    0.70065938
 C    1.62965990   -2.38867439    0.17615530
 C    2.78473164   -1.55587062    0.12014399
 C    2.08750140    0.67912165   -0.66867989
 C    2.10864701    1.46653011    0.61771871
 C    1.57317872    2.86414535    0.36480629
 C   -1.01296385    3.21258355   -0.25413989
 C   -2.23586434    2.41443062   -0.24313686
 C    4.27083585   -0.26046027   -1.18578360
 C    5.31061188    0.38565813   -0.39019969
 C    5.15955834    1.84163146   -0.52254285
 O   -2.01692576    1.08581320    0.20551480
 O   -3.10490988   -1.23045114   -1.55937082
 O   -1.62769729   -4.38429821   -0.81008443
 O   -1.21346903    4.42501421   -0.67154681
 N   -0.74026759   -2.52898802   -0.05863667
 N    2.92364983   -0.43208514   -0.75865319
 N    0.27237513    3.02101813    0.05849131
 N    5.04427925    3.03450948   -0.61209826
 H   -3.58219923    1.65452867    2.00455297
 H   -5.77991794    0.69247408    2.61002397
 H   -6.66105162   -1.20569832    1.18756928
 H   -5.33610826   -1.98754680   -0.71762014
 H   -3.72969290   -3.12186433   -1.15565393
 H   -2.64816625   -2.86763023   -2.60384817
 H    0.15367817   -0.84254006    0.66682875
 H    0.20537059   -2.17016473    1.82151039
 H    1.49251910   -3.07858951   -0.72902273
 H    1.84741597   -3.25609509    0.96820810
 H    3.25091590   -1.20890247    1.11896606
 H    3.65936690   -2.25210965   -0.26351234
 H    1.02769369    0.54096138   -0.93762758
 H    2.47182190    1.41979033   -1.46386974
 H    3.03974255    1.60446966    1.12166316
 H    1.37212017    0.97986742    1.35620278
 H    1.71900683    3.41791761    1.40155598
 H    2.37484780    3.43748066   -0.21050335
 H   -2.74497033    2.36239441   -1.22559581
 H   -3.00839116    2.87216215    0.44257425
 H    4.63820568   -1.23803262   -1.53805072
 H    4.15528722    0.30136895   -2.20062903
 H    6.36364975    0.19244963   -0.77474672
 H    5.32986596    0.10044807    0.68119306
 H   -0.29925110   -3.71083320    0.39141219
 H    0.52663327    4.33205845   -0.23527160
53
{"name": "Conformer 1801", "statusflags": ["topofail"], "energy": 252.8507811317744}
 C    4.27239230   -0.23909705    0.42050370
 C    5.19353678   -1.01956024   -0.16929754
 C    6.26211991   -0.51495838   -0.91307188
 C    6.34398798    0.85019151   -1.02551089
 C    5.40896242    1.63661974   -0.42443847
 C    4.32652077    1.14078718    0.33089008
 C    2.48286989    2.85838514    0.71681904
 C    1.26424725    2.36253557    0.03018491
 C   -1.03504791    2.70072055   -0.88203181
 C   -1.72028557    1.66827999    0.00410403
 C   -2.90720627    1.05636438   -0.66023191
 C   -2.62635476   -1.00323230    0.57750869
 C   -2.32135601   -1.86690392   -0.56617591
 C   -1.14514473   -2.82485152   -0.23628957
 C    1.31329226   -2.52532145    0.38393440
 C    2.29822400   -1.58638905    0.79844297
 C   -4.71333093   -0.46700989   -0.45166501
 C   -5.45163306   -1.38153408    0.44220781
 C   -5.94355785   -0.66869573    1.63853019
 O    3.17543490   -0.75021425    1.16760153
 O    3.44752706    1.96669685    0.90552778
 O    1.17438419    1.20363763   -0.33222540
 O    1.43499107   -3.71752463    0.16358202
 N    0.13852048    3.17340719   -0.24934553
 N   -3.54281313    0.08815869    0.23123050
 N   -0.04133828   -2.06510815    0.15821859
 N   -6.34373023   -0.11530435    2.59769897
 H    5.09915997   -2.09635797   -0.05747818
 H    6.96188989   -1.20006703   -1.35801043
 H    7.16383141    1.28482137   -1.60395658
 H    5.43205242    2.72984429   -0.48802656
 H    2.12165765    3.21982124    1.73912256
 H    2.79804291    3.81787014    0.19322811
 H   -1.79921960    3.52341479   -0.99466207
 H   -0.83192553    2.26977559   -1.88412891
 H   -0.98533536    0.92441393    0.27505960
 H   -2.13928539    2.19335363    0.92732710
 H   -3.69336733    1.83869376   -0.88986336
 H   -2.67875001    0.61542509   -1.66455678
 H   -1.78212082   -0.59841194    1.09032286
 H   -3.18835349   -1.60819205    1.35081168
 H   -2.06682952   -1.29880141   -1.49743309
 H   -3.18921635   -2.50174912   -0.83110041
 H   -1.00669290   -3.40906712   -1.18242492
 H   -1.48165075   -3.56346772    0.51976238
 H    2.25830662   -2.09485928    2.07828529
 H    3.29141668   -2.55844076    0.67409482
 H   -4.44150961   -0.93014515   -1.41185751
 H   -5.36967780    0.39346209   -0.68669602
 H   -4.94296421   -2.27540000    0.79917094
 H   -6.38551397   -1.70919647   -0.11433929
 H    0.23136249    4.14409958    0.04235889
 H   -0.12051990   -1.07091893    0.31828857
53
{"name": "Conformer 1857", "statusflags": ["topofail"], "energy": 384.8249829636837}
 C    3.24615550   -0.77615561   -0.19541481
 C    4.44578015   -1.41113957   -0.52074547
 C    5.67195510   -0.85049495   -0.35903718
 C    5.74802954    0.41804026    0.16113933
 C    4.56525339    1.04991543    0.48544963