68
{"name": "Conformer 669", "statusflags": ["topofail"], "energy": 306.09098341530307}
 C   -3.76824990    0.76779489   -1.07981634
 C   -4.38430313   -0.05706232   -0.17519234
 C   -5.72376718    0.11505190    0.07308922
 C   -6.47985928    1.08493679   -0.54667650
 C   -5.86375485    1.91325443   -1.45209968
 C   -4.50218851    1.73775319   -1.70501076
 C   -2.35928757    0.58174044   -1.39528438
 N   -1.39260296    1.43270277   -0.81682836
 C   -1.23974529    1.76957084    0.53812364
 C   -0.05819033    2.64836465    0.94611530
 O   -2.00919768    1.36564201    1.34711862
 O   -3.61515056   -1.06964257    0.48616424
 C   -0.14149781    4.01732988    0.46534024
 C    0.65380634    4.08290656   -0.78661739
 C    1.57671949    2.88086735   -0.70945877
 N    1.06977361    1.95890249    0.17223926
 C    1.25312455    0.64600561    0.56587999
 C    1.96454758   -0.48616711   -0.00150081
 N    1.61717561   -1.73452791    0.70907326
 C    0.30719375   -2.19266630    0.89268306
 O   -0.57057032   -1.40172082    0.61962423
 C    0.00980295   -3.51536514    1.39398167
 C   -1.00687714   -3.76739239    2.42006695
 N   -2.23324101   -3.24010099    2.33055189
 C   -3.45536861   -2.71463885    2.24135579
 O   -4.20529909   -3.29958475    3.20522884
 C   -4.25721972   -1.75819168    1.50751608
 O    0.65335062    0.41149878    1.67790955
 C    3.40040766   -0.41500113   -0.27375521
 C    3.90175411    0.65731021   -1.18711811
 C    5.19511763    0.25533928   -1.88062344
 C    6.09413414   -0.59724886   -1.05590489
 C    5.41379422   -1.78325775   -0.42116275
 C    3.95909361   -1.72528957   -0.83019690
Cl   -6.75808702    3.18774540   -2.28842044
 H    3.45564870   -2.60084627   -0.44690722
 H    3.95911079   -1.67786104   -1.95740657
 H    5.80578216   -2.74632064   -0.84533508
 H    5.54377131   -1.83983772    0.65962570
 H    6.70400203   -0.00111788   -0.33823810
 H    6.86919433   -1.00812788   -1.77123798
 H    4.94402098   -0.16632735   -2.85923396
 H    5.75531870    1.20385263   -2.08927279
 H    3.17987070    0.85569346   -1.98316736
 H    4.13251645    1.59323447   -0.65709920
 H    3.94090079   -0.25960281    0.70735229
 H   -5.12471257   -2.33435486    1.03464519
 H   -4.71721755   -1.02018473    2.23401389
 H   -2.59652192   -3.91085821    3.46666006
 H   -1.02959911   -4.94604745    2.58104488
 H   -0.47323533   -3.53523088    3.44443087
 H   -0.08725510   -4.26250894    0.52248762
 H    0.98403343   -3.89679248    1.86490723
 H    2.34854887   -2.28817971    1.10605444
 H    1.42534095   -0.68827823   -1.02212067
 H    1.60228193    2.48787862   -1.77544196
 H    2.58005001    3.30757924   -0.48681930
 H    1.26646058    5.03116191   -0.82451004
 H    0.03786303    4.08934335   -1.72072010
 H    0.29842209    4.76933017    1.17735345
 H   -1.19690155    4.35553744    0.25032168
 H    0.16716120    2.56807520    2.00082778
 H   -0.69062361    1.87778265   -1.42486463
 H   -2.13696005   -0.52958464   -1.27804879
 H   -2.20807033    0.69872829   -2.54381621
 H   -4.05930835    2.42813737   -2.43988380
 H   -7.53288712    1.22699508   -0.35464112
 H   -6.19234435   -0.53812751    0.78264506
68
{"name": "Conformer 2656", "statusflags": ["topofail"], "energy": 306.12640075134607}
 C    3.66865377   -1.29391812    1.60950300
 C    3.95578833   -0.36300909    0.71278865
 C    5.06309253   -0.57280741   -0.12541203
 C    5.86419314   -1.68226908   -0.07127805
 C    5.56860451   -2.64531657    0.85702127
 C    4.50192865   -2.44605108    1.66632893
 C    2.57208979   -1.38476798    2.59689020
 N    1.27605789   -1.67034881    2.03376140
 C    1.09079329   -2.46057216    0.89638245
 C   -0.14732513   -2.82515140    0.25290711
 O    2.16199510   -2.87890466    0.42094255
 O    3.21859059    0.84291644    0.53297554
 C    0.03920867   -3.91479750   -0.79427743
 C   -0.91136744   -3.57320876   -1.88356855
 C   -1.84038178   -2.53487372   -1.24936908
 N   -0.96224473   -1.80191962   -0.36588011
 C   -0.79669623   -0.46230436   -0.20071529
 C   -1.60633200    0.70737684   -0.50007513
 N   -0.82795349    1.93262599   -0.14091197
 C   -0.47539717    2.18295272    1.18936571
 O   -0.82850375    1.33812638    2.00862909
 C    0.29695093    3.38497550    1.66877747
 C    0.77567106    4.21528647    0.45881446
 N    1.77207953    3.53046516   -0.14361745
 C    2.75164878    2.85723994   -0.73588815
 O    3.13075930    3.53994280   -1.82924822
 C    3.52708596    1.63137165   -0.56359456
 O    0.34153517   -0.18903079    0.32536917
 C   -2.94022637    0.78704276    0.16071329
 C   -3.92371255   -0.27381870   -0.14683202
 C   -4.43929570   -0.16265857   -1.56248147
 C   -5.31788626    1.07132221   -1.69412734
 C   -5.05174304    2.03125210   -0.55599833
 C   -3.64386903    2.09889743   -0.11700411
Cl    6.56254378   -4.11586174    0.98111345
 H   -3.61719211    2.67570894    0.83238711
 H   -3.04091575    2.75797776   -0.81407500
 H   -5.33214811    3.04969301   -0.95113687
 H   -5.78419954    1.84767867    0.25701905
 H   -5.23966047    1.58621398   -2.65900003
 H   -6.35909367    0.71302797   -1.58978167
 H   -4.94700073   -1.09493319   -1.82112813
 H   -3.58824353   -0.00505027   -2.23794063
 H   -3.74109373   -1.27142006    0.18119549
 H   -4.86215682    0.04793342    0.48147359
 H   -2.77858428    0.74076630    1.27193921
 H    3.57780519    1.03713030   -1.51825013
 H    4.63235885    1.92758015   -0.40631808
 H    1.84989216    4.52280063   -1.07292077
 H   -0.16115151    4.41818556   -0.14976376
 H    0.98432692    5.23688454    0.89672940
 H   -0.31128321    4.03311764    2.27802295
 H    1.19985217    2.96254214    2.18350374
 H   -0.56721005    2.55877821   -0.85316704
 H   -1.72185745    0.74355784   -1.60814361
 H   -2.30293180   -1.99206423   -2.04764437
 H   -2.53590025   -3.10558679   -0.62169984
 H   -1.50810444   -4.46763516   -2.15359172
 H   -0.43684488   -3.20531057   -2.82148949
 H    1.08266856   -3.78863818   -1.21334634
 H   -0.04592423   -4.91801102   -0.35793882
 H   -0.87152546   -3.32757708    0.99806179
 H    0.43152121   -1.33549163    2.48759777
 H    2.45936752   -0.35555016    3.07271631
 H    2.81291619   -2.03248928    3.46882764
 H    4.30059252   -3.23947545    2.39488477
 H    6.71542145   -1.81757759   -0.73499563
 H    5.27996318    0.19702933   -0.86403135
